#!/usr/bin/env bash

# Pre-commit branch check - Blocks commits directly on master
# Forces all work to be done in feature branches

set -e

# Get current branch
current_branch=$(git rev-parse --abbrev-ref HEAD)

# List of protected branches (no direct commits allowed)
protected_branches=("master" "main" "production" "prod")

# Check if current branch is protected
for branch in "${protected_branches[@]}"; do
  if [ "$current_branch" = "$branch" ]; then
    echo ""
    echo "❌ ERROR: Direct commits to '$branch' are not allowed!"
    echo ""
    echo "🚫 BLOCKED OPERATION: git commit on $branch"
    echo ""
    echo "All work must be done in feature branches."
    echo ""
    echo "✅ CORRECT WORKFLOW:"
    echo "   1. Create a feature branch:"
    echo "      git checkout -b feature/your-feature-name"
    echo ""
    echo "   2. Make your changes and commit:"
    echo "      git add ."
    echo "      git commit -m 'feat: your changes'"
    echo ""
    echo "   3. Push and create a Pull Request:"
    echo "      git push -u origin feature/your-feature-name"
    echo "      gh pr create --base master"
    echo ""
    echo "Why this rule exists:"
    echo "  • Ensures all changes go through Pull Request review"
    echo "  • Maintains clean history with atomic feature branches"
    echo "  • Prevents accidental commits to protected branches"
    echo "  • Enforces team collaboration and code review"
    echo ""
    echo "Current branch: $current_branch"
    echo ""
    exit 1
  fi
done

# Allow commits on feature branches
exit 0
